% Model:              SE EVEN.mph
% Version:            COMSOL 5.4.0.388
% Date:               Mar 12 2025, 18:54
% Dimension:          1
% Nodes:              2135
% Expressions:        1
% Description:        Global
% X                       Height
0                         3.304994133497862
0.05                      3.2760052246888374
0.1                       3.225318322169807
0.15000000000000002       3.1721181702382584
0.2                       3.1171121574733736
0.25                      3.060567907314141
0.30000000000000004       3.0026850725277554
0.35000000000000003       2.9436553959750618
0.4                       2.883678726184352
0.45                      2.8229685392622557
0.5                       2.761754170759261
0.55                      1.6247653924848564
0.6000000000000001        1.7724674176708788
0.65                      1.9201684057598056
0.7000000000000001        2.0678682625190574
0.75                      2.2155668902371954
0.8                       2.3632641855282404
0.8500000000000001        2.3458282785956617
0.9                       2.2909674687647223
0.9500000000000001        2.2384463619061408
1                         2.1902549373737483
1.05                      2.234813168648328
1.1                       2.2823311182584414
1.1500000000000001        2.3293440974415742
1.2000000000000002        2.3758103393954717
1.25                      2.4217090846113094
1.3                       2.467023136094728
1.35                      2.5117364390424464
1.4000000000000001        2.555833505297483
1.4500000000000002        2.5992992399960184
1.5                       2.642118879955952
1.55                      2.6425224942475247
1.6                       2.6249258476130706
1.6500000000000001        2.6096233924133694
1.7000000000000002        2.596002852883417
1.75                      2.5844217130983846
1.8                       2.5749074981473155
1.85                      2.5674831919614225
1.9000000000000001        2.562166966760334
1.9500000000000002        2.558971964367065
2                         2.557906135421475
2.0500000000000003        2.430388049379656
2.1                       2.302479418961637
2.15                      2.1787793722761184
2.2                       2.2619053457617913
2.25                      2.343437329567264
2.3000000000000003        2.4232942374626862
2.35                      2.5013963988146966
2.4000000000000004        2.5776661386962236
2.45                      2.652028467055425
2.5                       2.7244118013880203
2.5500000000000003        2.7947486707174063
2.6                       2.8629763362316387
2.6500000000000004        2.929037223913065
2.7                       2.9928789653711343
2.75                      3.0544535708433997
2.8000000000000003        3.1137143826436664
2.85                      3.170605975239758
2.9000000000000004        3.225023010814179
2.95                      3.276515591660539
3                         3.3049941334979325
0                         3.3050526798497435
0.05                      3.2773213397730223
0.1                       3.2264775202778564
0.15000000000000002       3.173497595586822
0.2                       3.118792737054922
0.25                      3.0625535295844113
0.30000000000000004       3.0049551662354106
0.35000000000000003       2.946181622421106
0.4                       2.8864312799524248
0.45                      2.825918755984553
0.5                       2.764875630898529
0.55                      2.7002818243673556
0.6000000000000001        2.6388150683016827
0.65                      2.5776350852183008
0.7000000000000001        2.5170407625481652
0.75                      2.4573486195438323
0.8                       2.3988925087589084
0.8500000000000001        2.510604001968721
0.9                       2.65827659650484
0.9500000000000001        2.805947217610399
1                         2.953075150009826
1.05                      2.917112134036677
1.1                       2.88232840948032
1.1500000000000001        2.8490335265616116
1.2000000000000002        2.8172806156728254
1.25                      2.787122466296808
1.3                       2.758611425416334
1.35                      2.731799094072168
1.4000000000000001        2.70673597720326
1.4500000000000002        2.6834711072204005
1.5                       2.662051649211988
1.55                      2.642851792249399
1.6                       2.6252515806297043
1.6500000000000001        2.6099378670732176
1.7000000000000002        2.596324613379109
1.75                      2.584749690661408
1.8                       2.5752405920146444
1.85                      2.567820274381671
1.9000000000000001        2.5625068884937545
1.9500000000000002        2.5593135605887314
2                         2.558248231920815
2.0500000000000003        2.6858085990024323
2.1                       2.8136942475101887
2.15                      2.941578612974001
2.2                       3.0386246417606837
2.25                      3.046508641767173
2.3000000000000003        3.056053392519574
2.35                      3.0672056669227055
2.4000000000000004        3.0799038875886757
2.45                      3.094078724573864
2.5                       3.1096537329842184
2.5500000000000003        3.126546003195124
2.6                       3.144666782404482
2.6500000000000004        3.1639219945
2.7                       3.184212505216135
2.75                      3.2054337523428713
2.8000000000000003        3.22747360803372
2.85                      3.2502042365358275
2.9000000000000004        3.2734455147436767
2.95                      3.296637503646452
3                         3.30505267984957
0                         3.3142434852773
0.05                      3.306185965192669
0.1                       3.3080634983385866
0.15000000000000002       3.3112767663604865
0.2                       3.315763780191493
0.25                      3.3214974751495103
0.30000000000000004       3.3284485176140293
0.35000000000000003       3.33658260945125
0.4                       3.3458602407189244
0.45                      3.3562368723024227
0.5                       3.3676632417089243
0.55                      2.703550782910049
0.6000000000000001        2.6422105620666154
0.65                      2.581138881781888
0.7000000000000001        2.520637236904664
0.75                      2.4610246170095196
0.8                       2.4026372651440755
0.8500000000000001        2.5109600335202096
0.9                       2.6586542861249027
0.9500000000000001        2.806346614153685
1                         2.953696538406633
1.05                      2.9174978332643353
1.1                       2.882706536342507
1.1500000000000001        2.8494047721978992
1.2000000000000002        2.8176453800503207
1.25                      2.787481100790774
1.3                       2.7589642734071362
1.35                      2.7321465025478253
1.4000000000000001        2.707078301026784
1.4500000000000002        2.683808710876847
1.5                       2.6623849074685886
1.55                      2.6431486385211227
1.6                       2.6255577371254333
1.6500000000000001        2.6103796462011877
1.7000000000000002        2.5967654605007184
1.75                      2.5851897650581304
1.8                       2.5756800519930287
1.85                      2.568259277323413
1.9000000000000001        2.562945590956834
1.9500000000000002        2.5597521184490404
2                         2.558686800543757
2.0500000000000003        2.6862037127653773
2.1                       2.81410881938744
2.15                      2.942012806093772
2.2                       3.0539083416866033
2.25                      3.0616844706530557
2.3000000000000003        3.0710980636282774
2.35                      3.082096234122374
2.4000000000000004        3.0946177368111973
2.45                      3.108593519201987
2.5                       3.1239472920468057
2.5500000000000003        3.140596076029598
2.6                       3.158450652652167
2.6500000000000004        3.1774157799511684
2.7                       3.1973898648522625
2.75                      3.21826330811414
2.8000000000000003        3.2399131754781534
2.85                      3.2621854571252498
2.9000000000000004        3.2848176058758365
2.95                      3.305147662555546
3                         3.314243485277234
0                         3.3152674153891692
0.05                      3.3084795270185263
0.1                       3.3177275567187703
0.15000000000000002       3.327173305442359
0.2                       3.332709376225497
0.25                      3.339757290504012
0.30000000000000004       3.348266477034182
0.35000000000000003       3.358173888041375
0.4                       3.369407139808673
0.45                      3.381885109722319
0.5                       3.3955185958570695
0.55                      3.3800857165313682
0.6000000000000001        3.393446664054452
0.65                      3.40768481067642
0.7000000000000001        3.4227355524916154
0.75                      3.3835216212667736
0.8                       3.2887375960425516
0.8500000000000001        3.197964845005182
0.9                       3.111554756241402
0.9500000000000001        3.0298810288976834
1                         2.953753428753333
1.05                      2.917657333586492
1.1                       2.8828826600177795
1.1500000000000001        2.8495970062464
1.2000000000000002        2.8178531637625217
1.25                      2.787703825838322
1.3                       2.7592012828741064
1.35                      2.7323970901410664
1.4000000000000001        2.7073417106786746
1.4500000000000002        2.6840841368286164
1.5                       2.6626714949032713
1.55                      2.6435927632669878
1.6                       2.626000608503878
1.6500000000000001        2.7665576495272184
1.7000000000000002        2.8066499241226293
1.75                      2.8460240591599306
1.8                       2.8846626361707557
1.85                      2.922540868217778
1.9000000000000001        2.9596068039438737
1.9500000000000002        2.9956461823514866
2                         3.0244405533747383
2.0500000000000003        3.0253334176561375
2.1                       3.028006901090014
2.15                      3.0324457316513613
2.2                       3.069461509544187
2.25                      3.1973428317826236
2.3000000000000003        3.32522248438824
2.35                      3.383522410299649
2.4000000000000004        3.372490795070946
2.45                      3.3621908752161223
2.5                       3.3526584939121706
2.5500000000000003        3.3439271977033718
2.6                       3.3360280563785185
2.6500000000000004        3.3289895069825737
2.7                       3.322837250650651
2.75                      3.3175942830726632
2.8000000000000003        3.313281355777649
2.85                      3.309919377782217
2.9000000000000004        3.307547412936788
2.95                      3.3076005539034252
3                         3.315267415388938
0                         3.329886647823816
0.05                      3.3209907918371044
0.1                       3.323236635272698
0.15000000000000002       3.332991237577324
0.2                       3.348384806151426
0.25                      3.356018874358315
0.30000000000000004       3.3645172459143944
0.35000000000000003       3.374318717968029
0.4                       3.3854008147273564
0.45                      3.397696092598337
0.5                       3.4111209724097638
0.55                      3.410210969561169
0.6000000000000001        3.4258586721559876
0.65                      3.4423512860117533
0.7000000000000001        3.459570532102707
0.75                      3.383931230043282
0.8                       3.289168542188345
0.8500000000000001        3.1984140537676504
0.9                       3.1119869923094874
0.9500000000000001        3.030296962555614
1                         2.9538499911874996
1.05                      2.9181217935635466
1.1                       2.8833450075544715
1.1500000000000001        2.850056855208681
1.2000000000000002        2.8183105450179666
1.25                      2.788158853495711
1.3                       2.759654098587707
1.35                      2.7328478470518305
1.4000000000000001        2.7077905672657456
1.4500000000000002        2.684531254077685
1.5                       2.663117034818483
1.55                      2.684277957550197
1.6                       2.725762247303366
1.6500000000000001        3.2602794036572336
1.7000000000000002        3.230115989363393
1.75                      3.199157400392882
1.8                       3.1674141938652927
1.85                      3.1349053218973895
1.9000000000000001        3.101678066653346
1.9500000000000002        3.0679432861569893
2                         3.0399173621527056
2.0500000000000003        3.0407981046833714
2.1                       3.04343526572322
2.15                      3.047813699565814
2.2                       3.0699154471423116
2.25                      3.19781663216022
2.3000000000000003        3.3257162661661748
2.35                      3.4531003716494335
2.4000000000000004        3.580976394264601
2.45                      3.5778156840481103
2.5                       3.532136565300763
2.5500000000000003        3.490234169929812
2.6                       3.452297933758759
2.6500000000000004        3.4184678346187827
2.7                       3.388870726415291
2.75                      3.3636212400419194
2.8000000000000003        3.342820794845182
2.85                      3.326557528271595
2.9000000000000004        3.3149145127490525
2.95                      3.308710765027371
3                         3.3298866478238223
0                         3.3304629734282014
0.05                      3.337065159312587
0.1                       3.340040512677576
0.15000000000000002       3.344365400219445
0.2                       3.3560891342170835
0.25                      3.383021158811471
0.30000000000000004       3.4163461562866506
0.35000000000000003       3.455395290756943
0.4                       3.4999282985311733
0.45                      3.5497226427147877
0.5                       3.6045449415235127
0.55                      3.425581717815149
0.6000000000000001        3.4409763933240263
0.65                      3.45719529407411
0.7000000000000001        3.47411956673746
0.75                      3.3840070249088066
0.8                       3.289204537538524
0.8500000000000001        3.198417142611612
0.9                       3.1120282497177145
0.9500000000000001        3.0303752374292725
1                         2.9538785795586153
1.05                      3.027435596559711
1.1                       3.1012678322206506
1.1500000000000001        3.175099940312558
1.2000000000000002        3.2489315969464956
1.25                      3.3227627227316283
1.3                       3.3965932785817747
1.35                      3.4241922239787406
1.4000000000000001        3.3989401102908166
1.4500000000000002        3.3728495156778195
1.5                       3.3459312275913207
1.55                      3.3181928080066796
1.6                       3.2896403304637336
1.6500000000000001        3.483228332186958
1.7000000000000002        3.4815924175623962
1.75                      3.4802045295767425
1.8                       3.4790664898261263
1.85                      3.4781797926301468
1.9000000000000001        3.477545602722556
1.9500000000000002        3.477164753424533
2                         3.4770377452911307
2.0500000000000003        3.4628198446080907
2.1                       3.4482629309045483
2.15                      3.43417890707629
2.2                       3.4206184908242854
2.25                      3.407627007125525
2.3000000000000003        3.395247770943693
2.35                      3.4536142544659567
2.4000000000000004        3.5815104978868524
2.45                      3.589975871633856
2.5                       3.5676832686245943
2.5500000000000003        3.5446903152075384
2.6                       3.521088587530961
2.6500000000000004        3.4969908621847345
2.7                       3.472506105716508
2.75                      3.4477417735638225
2.8000000000000003        3.4228081024989256
2.85                      3.3978268543526355
2.9000000000000004        3.3729612125089554
2.95                      3.3486064283626287
3                         3.3304629734288813
0                         3.3306515141964983
0.05                      3.375581526448497
0.1                       3.4206704959882397
0.15000000000000002       3.463727827150147
0.2                       3.5045553707617145
0.25                      3.543027595040634
0.30000000000000004       3.5790111320695766
0.35000000000000003       3.6123306032303053
0.4                       3.6427215241135364
0.45                      3.662717738450669
0.5                       3.6496661411437765
0.55                      3.6355698665706604
0.6000000000000001        3.621579061431971
0.65                      3.583836084203339
0.7000000000000001        3.481989080562492
0.75                      3.3844352823377086
0.8                       3.2896628085789525
0.8500000000000001        3.198902247678658
0.9                       3.1125048839780396
0.9500000000000001        3.0308443312138182
1                         2.9546377903564927
1.05                      3.0278701290412964
1.1                       3.1017131851704276
1.1500000000000001        3.1755563017419837
1.2000000000000002        3.2493990409313
1.25                      3.323241299977357
1.3                       3.397083030609929
1.35                      3.4704232364295176
1.4000000000000001        3.4950422576463134
1.4500000000000002        3.4922045984579295
1.5                       3.489601185488974
1.55                      3.4872353379092256
1.6                       3.48511012756499
1.6500000000000001        3.4847205753280415
1.7000000000000002        3.4831146407224036
1.75                      3.48175264262419
1.8                       3.480636159793469
1.85                      3.4797664710793477
1.9000000000000001        3.4791445634802027
1.9500000000000002        3.4787711380099124
2                         3.478646613713429
2.0500000000000003        3.4932505538387004
2.1                       3.508964359858124
2.15                      3.5249720032242755
2.2                       3.541213941102421
2.25                      3.5576258666774154
2.3000000000000003        3.574115536909384
2.35                      3.5904529744313027
2.4000000000000004        3.6045620487564642
2.45                      3.594910443890215
2.5                       3.5740901867258823
2.5500000000000003        3.5519194954016977
2.6                       3.528982766893681
2.6500000000000004        3.505480243650566
2.7                       3.481551831533599
2.75                      3.4573221590534997
2.8000000000000003        3.4329163940794327
2.85                      3.4084764370883356
2.9000000000000004        3.3841999304972488
2.95                      3.360388232735289
3                         3.3306515141964805
0                         3.3503625536824435
0.05                      3.3807787110079
0.1                       3.4253250913923883
0.15000000000000002       3.469096453289111
0.2                       3.5111088430253354
0.25                      3.5511344739589616
0.30000000000000004       3.5890471846386793
0.35000000000000003       3.6246373304854256
0.4                       3.6565139575849486
0.45                      3.6664468386658173
0.5                       3.6517709315136644
0.55                      3.6372066533340317
0.6000000000000001        3.6230097791625697
0.65                      3.584203525143597
0.7000000000000001        3.4823774892814723
0.75                      3.43853113916195
0.8                       3.4550005381713693
0.8500000000000001        3.472068400041017
0.9                       3.489650920680232
0.9500000000000001        3.507636485142006
1                         3.525260834782021
1.05                      3.520949585539458
1.1                       3.516609284168326
1.1500000000000001        3.512213475647981
1.2000000000000002        3.4946063351680805
1.25                      3.4720928040514982
1.3                       3.448588125826667
1.35                      3.470924198709249
1.4000000000000001        3.496331295026945
1.4500000000000002        3.4935408791895237
1.5                       3.490981455870843
1.55                      3.4886563705591427
1.6                       3.486568556917639
1.6500000000000001        3.651217596389251
1.7000000000000002        3.660741755909102
1.75                      3.6701949811614956
1.8                       3.6795481524574973
1.85                      3.68874520375607
1.9000000000000001        3.697637045943255
1.9500000000000002        3.7056118903481634
2                         3.7095920552272132
2.0500000000000003        3.709014211502112
2.1                       3.705297880699815
2.15                      3.6962497192510044
2.2                       3.6834272591572605
2.25                      3.6679894960252857
2.3000000000000003        3.6505594811014936
2.35                      3.631546965920747
2.4000000000000004        3.6112539517051907
2.45                      3.6266104427980093
2.5                       3.6424997999512603
2.5500000000000003        3.658283524593936
2.6                       3.6453299820602405
2.6500000000000004        3.614042534987806
2.7                       3.580218004252076
2.75                      3.544100318018336
2.8000000000000003        3.5057338491425054
2.85                      3.4651533066736837
2.9000000000000004        3.4224688553983484
2.95                      3.3784301034905275
3                         3.35036255368211
0                         3.789167139605154
0.05                      3.7819321812516344
0.1                       3.7691284530980576
0.15000000000000002       3.755086379871924
0.2                       3.740550606694854
0.25                      3.7257829978574484
0.30000000000000004       3.71095796409428
0.35000000000000003       3.696298223248837
0.4                       3.681564897049959
0.45                      3.6701518113020577
0.5                       3.6931617590784143
0.55                      3.664217059112503
0.6000000000000001        3.6887824107890452
0.65                      3.5843604164036424
0.7000000000000001        3.4824936300026033
0.75                      3.477386238675532
0.8                       3.495641603984707
0.8500000000000001        3.5140827369706757
0.9                       3.531634115675454
0.9500000000000001        3.53444143060653
1                         3.5254446282967447
1.05                      3.5218316832050727
1.1                       3.517617306509575
1.1500000000000001        3.513518128821847
1.2000000000000002        3.508704118809974
1.25                      3.5049306844041617
1.3                       3.5014069961652705
1.35                      3.498110736683434
1.4000000000000001        3.544252571843326
1.4500000000000002        3.6127438572549733
1.5                       3.622392197629356
1.55                      3.6320288784100647
1.6                       3.641641669289596
1.6500000000000001        3.687660126937297
1.7000000000000002        3.694301879621345
1.75                      3.700304795561572
1.8                       3.7055456705055856
1.85                      3.709895830067737
1.9000000000000001        3.7132673813643056
1.9500000000000002        3.71585324724749
2                         3.7171686822236967
2.0500000000000003        3.7150305392972434
2.1                       3.708923943170097
2.15                      3.6993795343100007
2.2                       3.686966271232033
2.25                      3.6722258400367416
2.3000000000000003        3.6556404734494596
2.35                      3.6377348214205374
2.4000000000000004        3.620759098391126
2.45                      3.7088504476885706
2.5                       3.702275913770532
2.5500000000000003        3.6762786169779207
2.6                       3.676485472154267
2.6500000000000004        3.6925825769853926
2.7                       3.7087670435382263
2.75                      3.724754201458673
2.8000000000000003        3.740435490500669
2.85                      3.7556812355248623
2.9000000000000004        3.7702106723361615
2.95                      3.7829839142725388
3                         3.789167139605166
0                         3.7898793993537176
0.05                      3.784667217413225
0.1                       3.7719288929902146
0.15000000000000002       3.7574175013984017
0.2                       3.7424333090649857
0.25                      3.7272600420875444
0.30000000000000004       3.712024044659585
0.35000000000000003       3.6968490122388253
0.4                       3.683496495928913
0.45                      3.6939911853203853
0.5                       3.722047256968795
0.55                      3.711617276315352
0.6000000000000001        3.6891291898695844
0.65                      3.5847288794121956
0.7000000000000001        3.4828919142772747
0.75                      3.491614914029401
0.8                       3.509504389122903
0.8500000000000001        3.527385353476555
0.9                       3.540792947492965
0.9500000000000001        3.535078561563646
1                         3.5268017698585976
1.05                      3.5344504558700582
1.1                       3.5346488205048896
1.1500000000000001        3.51650691948544
1.2000000000000002        3.50972359733458
1.25                      3.506048136725876
1.3                       3.502589379464006
1.35                      3.4993488965852064
1.4000000000000001        3.5447647737611216
1.4500000000000002        3.6180812615092384
1.5                       3.6648837159663605
1.55                      3.672869580851784
1.6                       3.680486297335156
1.6500000000000001        3.6930718239643676
1.7000000000000002        3.6989744820899375
1.75                      3.7042142853903806
1.8                       3.7086950852782743
1.85                      3.712318253075924
1.9000000000000001        3.7149902332918034
1.9500000000000002        3.7166357640513827
2                         3.7183631686409626
2.0500000000000003        3.7169467734634627
2.1                       3.714900492926482
2.15                      3.7149735427156925
2.2                       3.7162810357966944
2.25                      3.718269352432828
2.3000000000000003        3.7207872914750104
2.35                      3.6803123778046576
2.4000000000000004        3.627421638442973
2.45                      3.709404889922282
2.5                       3.7356457679904067
2.5500000000000003        3.7402837477983613
2.6                       3.7453125181962026
2.6500000000000004        3.7506836374719756
2.7                       3.7563611571533477
2.75                      3.7623060846697713
2.8000000000000003        3.7684683099521763
2.85                      3.7747699273389244
2.9000000000000004        3.7810494201498797
2.95                      3.786803308178032
3                         3.789879399353716
0                         3.803449027697635
0.05                      3.798080074851358
0.1                       3.797075685933647
0.15000000000000002       3.7977390291552915
0.2                       3.7990415874548074
0.25                      3.8008094703857846
0.30000000000000004       3.8029893457991277
0.35000000000000003       3.8055536316922733
0.4                       3.80848172921533
0.45                      3.811755331840177
0.5                       3.8153575682936776
0.55                      3.7490275397237647
0.6000000000000001        3.689327117522007
0.65                      3.607880194214895
0.7000000000000001        3.5945849795451945
0.75                      3.581786636167799
0.8                       3.5696061979935547
0.8500000000000001        3.5583730855363025
0.9                       3.549403120547279
0.9500000000000001        3.554418057572912
1                         3.5678313829187176
1.05                      3.5580833106205096
1.1                       3.5484547310840178
1.1500000000000001        3.55570276315313
1.2000000000000002        3.5648688617204
1.25                      3.5743116795883485
1.3                       3.5838596461303305
1.35                      3.5934626377777845
1.4000000000000001        3.6030961909248456
1.4500000000000002        3.618604724683955
1.5                       3.6722300604986726
1.55                      3.6796247558547956
1.6                       3.6865953386067947
1.6500000000000001        3.778315371691189
1.7000000000000002        3.770169869894593
1.75                      3.761866275536783
1.8                       3.7534317060678637
1.85                      3.744907162146335
1.9000000000000001        3.7363776852179424
1.9500000000000002        3.7281186613892356
2                         3.7224300683322413
2.0500000000000003        3.722716113702225
2.1                       3.7234664638372448