% Model:              ABStack.mph
% Version:            COMSOL 5.4.0.388
% Date:               Mar 12 2025, 15:12
% Dimension:          1
% Nodes:              427
% Expressions:        1
% Description:        Global
% X                       Height
0                         0
0.05                      0.2998644446010113
0.1                       0.5982903452355655
0.15000000000000002       0.8937950250846447
0.2                       1.1848096031265676
0.25                      1.4696421773777983
0.30000000000000004       1.7464517291275978
0.35000000000000003       2.0132414535486216
0.4                       2.2678836118545544
0.45                      2.5081895194363337
0.5                       2.7320344305701774
0.55                      2.937534144304986
0.6000000000000001        3.123248000617349
0.65                      5.245254784099152E-6
0.7000000000000001        5.641858306987914E-6
0.75                      3.571054870335868E-8
0.8                       9.060176313609462E-9
0.8500000000000001        2.272705601665446E-8
0.9                       5.635108968181513E-10
0.9500000000000001        3.1413733263726743E-6
1                         5.907430904436856E-7
1.05                      1.5496205318568829E-6
1.1                       2.9895298401021434E-6
1.1500000000000001        1.0437670200463455E-6
1.2000000000000002        1.5173236513658943E-6
1.25                      3.0118101511073294E-6
1.3                       2.5751239690123935E-6
1.35                      2.7788678980709475E-6
1.4000000000000001        3.6300149775136823E-6
1.4500000000000002        1.6314512957432856E-6
1.5                       2.8474578439595514E-6
1.55                      1.0904760290104751E-7
1.6                       9.279297253225191E-8
1.6500000000000001        3.286177831354266E-8
1.7000000000000002        3.04440665618023E-8
1.75                      9.838553568722951E-8
1.8                       1.100717552537288E-7
1.85                      1.1651537174319838E-7
1.9000000000000001        5.562171596892191E-8
1.9500000000000002        8.998202673867448E-8
2                         4.266733949095282E-9
2.0500000000000003        1.0750257837657674E-7
2.1                       1.591717782158789E-7
2.15                      4.0593848371002436E-7
2.2                       2.087401597001822E-6
2.25                      2.2452742523312912E-6
2.3000000000000003        3.1426881547951298
2.35                      2.9861322986860244
2.4000000000000004        2.8141560942391535
2.45                      2.62772266317066
2.5                       2.428030440954608
2.5500000000000003        2.2164386852662608
2.6                       1.994384164644937
2.6500000000000004        1.7633088190540431
2.7                       1.5246075472713536
2.75                      1.2795974379640649
2.8000000000000003        1.02950535609738
2.85                      0.7754692307395078
2.9000000000000004        0.5185485700203056
2.95                      0.25974066288909853
3                         0
0                         1.8328409453769075E-6
0.05                      0.38375062776878544
0.1                       0.7674997834190569
0.15000000000000002       1.1512459858520212
0.2                       1.5349877450244909
0.25                      1.9187234981392334
0.30000000000000004       2.302451690274734
0.35000000000000003       2.6861706570984896
0.4                       3.0698786302843186
0.45                      3.453573679692865
0.5                       3.6428178952389048
0.55                      3.6931149377793346
0.6000000000000001        3.7417848106701084
0.65                      3.288359688800616
0.7000000000000001        3.432778578069799
0.75                      3.187223264428889E-6
0.8                       3.1430371248221435E-6
0.8500000000000001        3.1045176818304724E-6
0.9                       3.0754032530023692E-6
0.9500000000000001        3.7875132927716073E-6
1                         4.926298978260284E-6
1.05                      5.5433270544441706E-6
1.1                       4.243231359576859E-6
1.1500000000000001        5.842078123811441E-6
1.2000000000000002        1.8204460940380717E-6
1.25                      6.974076150721722E-6
1.3                       3.6289650203600424E-6
1.35                      3.287563926501246E-6
1.4000000000000001        4.708362311999847E-6
1.4500000000000002        2.2535829874566813E-6
1.5                       4.869886031651271E-6
1.55                      1.8104163266723034E-6
1.6                       1.7547139935881762E-6
1.6500000000000001        1.7632853420860993E-6
1.7000000000000002        1.2959110824342254E-6
1.75                      1.4598710719553564E-6
1.8                       1.3137618545758968E-6
1.85                      1.0748444877524789E-6
1.9000000000000001        9.563676287862098E-7
1.9500000000000002        3.267078384646033E-7
2                         6.331302951876073E-8
2.0500000000000003        3.641708653633895E-6
2.1                       3.979519101296685E-6
2.15                      4.428153249805647E-6
2.2                       3.406977307334585
2.25                      3.283129667833491
2.3000000000000003        3.739911552261549
2.35                      3.7012303410329306
2.4000000000000004        3.6598809904126095
2.45                      3.617026268495362
2.5                       3.3231714324452875
2.5500000000000003        2.990883863555381
2.6                       2.658586528641304
2.6500000000000004        2.3262807929538245
2.7                       1.9939678836572694
2.75                      1.6616489382033688
2.8000000000000003        1.3293250238048138
2.85                      0.9969971788420197
2.9000000000000004        0.6646664047788046
2.95                      0.33233368700295873
3                         1.8831715889512693E-6
0                         3.302627183071495
0.05                      0.3837707579189414
0.1                       0.7675398844460849
0.15000000000000002       1.1513059626280162
0.2                       1.5350680823184046
0.25                      1.9188255985576672
0.30000000000000004       2.302579164532981
0.35000000000000003       2.686329988242723
0.4                       3.070080369201235
0.45                      3.453833643831714
0.55                      4.1893077209454015
0.6000000000000001        4.168431290662091
0.65                      3.7879260501435517
0.7000000000000001        3.830771130526466
0.75                      3.5571214303461054
0.8                       3.6625681880583443
0.8500000000000001        3.7505985610118766
0.9                       3.8225050374595004
0.9500000000000001        7.916887506457592E-5
1                         3.400441482859681E-5
1.05                      2.1750471452614737E-5
1.1                       1.0897448131528546E-4
1.1500000000000001        1.1778505444088784E-4
1.2000000000000002        1.6330214097863744E-4
1.25                      7.225644780758634E-5
1.3                       1.8299481468222995E-4
1.35                      1.8110417548759306E-4
1.4000000000000001        1.744629348302438E-4
1.4500000000000002        3.315654873457583E-4
1.5                       3.4113645555741636E-4
1.55                      5.44218912138002E-6
1.6                       5.335948991638462E-6
1.6500000000000001        5.521848247545369E-6
1.7000000000000002        5.425663463668194E-6
1.75                      5.464873750069598E-6
1.8                       5.524294718404108E-6
1.85                      5.644983160932678E-6
1.9000000000000001        5.73075088400803E-6
1.9500000000000002        5.5596615600024765E-6
2                         5.676164899507138E-6
2.0500000000000003        3.668067249195567
2.1                       3.6021892367859887
2.15                      3.5137324454054015
2.2                       3.8026977322629962
2.25                      3.7744386582892773
2.3000000000000003        4.158273814795954
2.35                      4.178672137298561
2.5                       3.3234544392762193
2.5500000000000003        2.991119662546964
2.6                       2.658784365877306
2.6500000000000004        2.3264471288232387
2.7                       1.9941069668558218
2.75                      1.6617633629538207
2.8000000000000003        1.3294160654512897
2.85                      0.9970654372825167
2.9000000000000004        0.6647119894483051
2.95                      0.33235652116829556
3                         3.302627183071479
0                         3.3029847067914275
0.05                      3.3071646907607324
0.1                       3.3203128110572044
0.15000000000000002       3.341733721901627
0.2                       3.3707233807785895
0.25                      3.4063542389849824
0.30000000000000004       3.447527224900223
0.35000000000000003       3.4930284236015674
0.4                       3.541586398626086
0.45                      3.5919263182642407
0.55                      4.208868070601088
0.6000000000000001        4.1913315938881315
0.65                      4.145476628247872
0.7000000000000001        4.120483618575224
0.75                      3.8696670105480027
0.8                       3.9040121244395167
0.8500000000000001        3.9330811317328305
0.9                       3.955496016253585
0.9500000000000001        3.87763865574029
1                         3.902707563967161
1.05                      3.897393289247064
1.1                       3.8854195020074465
1.1500000000000001        3.8709108185089787
1.2000000000000002        3.8554732828149496
1.25                      3.8397752985116873
1.3                       3.82416537019013
1.35                      3.808869150875782
1.4000000000000001        3.7940586310526085
1.4500000000000002        3.7798792376251713
1.5                       3.7664612096624523
1.55                      3.7539243895979486
1.6                       3.74237998771312
1.6500000000000001        3.7319308575025496
1.7000000000000002        3.722671014090712
1.75                      3.714684779070606
1.8                       3.7080457724578038
1.85                      3.7028158907211526
1.9000000000000001        3.699044365078849
1.9500000000000002        3.6967669668688714
2                         3.6960054076994115
2.0500000000000003        3.819578669042195
2.1                       3.8274054900114765
2.15                      3.8215878351890438
2.2                       4.114726246996353
2.25                      4.1365707163286425
2.3000000000000003        4.189955378319827
2.35                      4.205159390886703
2.5                       3.573677911960188
2.5500000000000003        3.5307816974830133
2.6                       3.489253524832706
2.6500000000000004        3.449988045207357
2.7                       3.4138513548610954
2.75                      3.3816642276346514
2.8000000000000003        3.354179974005667
2.85                      3.3320599419731227
2.9000000000000004        3.3158492078199746
2.95                      3.3059547469846486
3                         3.3029847067914475
0                         4.293214100187926
0.05                      3.323963174150476
0.1                       3.386414588296071
0.15000000000000002       3.4879822472713085
0.2                       3.625324921196854
0.25                      3.7944790601628116
0.30000000000000004       3.991267891780083
0.35000000000000003       4.210723397204001
0.4                       4.239482566562922
0.45                      4.224840685340081
0.5                       4.208105118560762
0.6000000000000001        4.604557509708921
0.65                      4.172311204992062
0.7000000000000001        4.151922784930955
0.75                      4.093554361666771
0.8                       4.064892686816961
0.8500000000000001        4.034897945330768
0.9                       4.00449772913542
0.9500000000000001        3.9672222746306343
1                         3.962696485681855
1.05                      3.959284863101965
1.1                       3.950959407346597
1.1500000000000001        3.940857005167617
1.2000000000000002        3.9298997835767207
1.25                      3.9185611377032434
1.3                       3.907139690362477
1.35                      3.8958452472198046
1.4000000000000001        3.8848387603511303
1.4500000000000002        3.8742526147690444
1.5                       3.864201217348994
1.55                      3.8547865190409376
1.6                       3.846100774039963
1.6500000000000001        3.838227740264308
1.7000000000000002        3.8312429835210167
1.75                      3.8252136704750974
1.8                       3.8201980880962716
1.85                      3.81624504519269
1.9000000000000001        3.8133932631520095
1.9500000000000002        3.8116708319387116
2                         3.811094785336024
2.0500000000000003        4.074784329291992
2.1                       4.08093557009532
2.15                      4.09504292387635
2.2                       4.156770542543009
2.25                      4.173749005669532
2.3000000000000003        4.65218581282279
2.4000000000000004        4.197283991020926
2.45                      4.213973582693582
2.5                       4.228766751378422
2.5500000000000003        4.241757441625179
2.6                       4.195612156675635
2.6500000000000004        4.004622674098473
2.7                       3.83122838614042
2.75                      3.6780039710673895
2.8000000000000003        3.547633160466007
2.85                      3.4427683769626785
2.9000000000000004        3.365836439300357
2.95                      3.318809891255171
3                         4.293214100187931
0                         4.29938856394981
0.05                      4.292411121887001
0.1                       4.289996292969018
0.15000000000000002       4.285952352397058
0.2                       4.280252293115402
0.25                      4.272864459710336
0.30000000000000004       4.263779216351182
0.35000000000000003       4.253908898076181
0.4                       4.2520835939008546
0.45                      4.239264060548508
0.5                       4.224855939731948
0.6000000000000001        4.605158538833946
0.65                      4.988174258190005
0.7000000000000001        5.371760498729959
0.75                      4.130365519921905
0.8                       4.1079901721575025
0.8500000000000001        4.085470030678087
0.9                       4.064291055925038
0.9500000000000001        3.9774602026437353
1                         3.969899874965385
1.05                      3.975956094464352
1.1                       3.9890503480663826
1.1500000000000001        4.003143052698281
1.2000000000000002        4.016624204091029
1.25                      4.029030889661547
1.3                       4.040243865814798
1.35                      4.050257182026583
1.4000000000000001        4.059052712175103
1.4500000000000002        4.065568678576872
1.5                       4.067935338867544
1.55                      4.069474922685196
1.6                       4.0706847935664054
1.6500000000000001        4.071640279074097
1.7000000000000002        4.072384852218448
1.75                      4.072953620335339
1.8                       4.073376515399333
1.85                      4.073678598580454
1.9000000000000001        4.073879811874985
1.9500000000000002        4.07399466145067
2                         4.0740319594110135
2.0500000000000003        4.1092539430940365
2.1                       4.122922101486946
2.15                      4.13949670601076
2.2                       5.316557816406236
2.25                      4.984389074476125
2.3000000000000003        4.652827096540372
2.4000000000000004        4.219255442123511
2.45                      4.23220166563559
2.5                       4.243987386484875
2.5500000000000003        4.254615368473552
2.6                       4.253062210887699
2.6500000000000004        4.262793537779713
2.7                       4.271054480680019
2.75                      4.277928688198034
2.8000000000000003        4.283481217951572
2.85                      4.287759478942038
2.9000000000000004        4.29079578695055
2.95                      4.292610371220519
3                         4.299388563949811
0                         5.854483342545293
0.05                      4.29866453720673
0.1                       4.296489092067518
0.15000000000000002       4.292852389674766
0.2                       4.287738873069235
0.25                      4.281128505193706
0.30000000000000004       4.272998555051283
0.35000000000000003       4.2633295114946685
0.4                       4.452912474178859
0.45                      4.710174443851637
0.5                       4.981527599953922
0.55                      5.264472487244159
0.6000000000000001        5.556904742982387
0.65                      4.988974383538758
0.7000000000000001        5.372820117508192
0.75                      5.7553074298060105
0.8                       6.138799567363372
0.8500000000000001        6.52220418035556
0.9                       6.905429046162965
0.9500000000000001        4.048028229886224
1                         4.042286417271213
1.05                      4.043270056256732
1.1                       4.045829888034287
1.1500000000000001        4.049125579835584
1.2000000000000002        4.052620718570068
1.25                      4.056016660042548
1.3                       4.059162420955015
1.35                      4.062000022067529
1.4000000000000001        4.064578547917542
1.4500000000000002        4.068035751496795
1.5                       4.074337705016862
1.55                      4.080265676393458
1.6                       4.085425446661503
1.6500000000000001        4.089839948427729
1.7000000000000002        4.093556222425893
1.75                      4.096620048186922
1.8                       4.0990714793833485
1.85                      4.100943657823729
1.9000000000000001        4.102262448106989
1.9500000000000002        4.103046332971077
2                         4.1033063968488515
2.0500000000000003        6.312254424365997
2.1                       5.980667777733678
2.15                      5.648670872962652
2.2                       5.31755104024032
2.25                      4.9851869308533265
2.3000000000000003        5.594050990957634
2.35                      5.339434028185436
2.4000000000000004        5.091487264973183
2.45                      4.851547071047925
2.5                       4.6210984564360515
2.5500000000000003        4.4018195887457985
2.6                       4.264092970982357
2.6500000000000004        4.272427019284348
2.7                       4.279624945156383
2.75                      4.285693818121021
2.8000000000000003        4.290641568710768
2.85                      4.294476893315998
2.9000000000000004        4.2972085164899925
2.95                      4.2988440131282575
3                         5.854483342545436
